 +-------------------------------------------------+
 |                                                 |
 |      CCC   AA    SSS  TTTTT  EEEEE  PPPP        |
 |     C     A  A  S       T    E      P   P       |
 |     C     AAAA   SS     T    EEE    PPPP        |
 |     C     A  A     S    T    E      P           |
 |      CCC  A  A  SSS     T    EEEEE  P           |
 |                                                 |
 +-------------------------------------------------+
 |                                                 |
 | Welcome to Academic Release CASTEP version 23.1 |
 | Ab Initio Total Energy Program                  |
 |                                                 |
 | Authors:                                        |
 | M. Segall, M. Probert, C. Pickard, P. Hasnip,   |
 | S. Clark, K. Refson, J. R. Yates, M. Payne      |
 |                                                 |
 | Contributors:                                   |
 | P. Lindan, P. Haynes, J. White, V. Milman,      |
 | N. Govind, M. Gibson, P. Tulip, V. Cocula,      |
 | B. Montanari, D. Quigley, M. Glover,            |
 | L. Bernasconi, A. Perlov, M. Plummer,           |
 | E. McNellis, J. Meyer, J. Gale, D. Jochym       |
 | J. Aarons, B. Walker, R. Gillen, D. Jones       |
 | T. Green, I. J. Bush, C. J. Armstrong,          |
 | E. J. Higgins, E. L. Brown, M. S. McFly,        |
 | J. Wilkins, B-C. Shih, P. J. P. Byrne,          |
 | R. J. Maurer, J. C. Womack, J. Dziedzic,        |
 | A. Bartok-Partay, L. LeBlanc, T. K. Stenczel,   |
 | J. Kermode, S. Sturniolo, B. Shi, B. Durham     |
 | M. Evans, M. J. Smith                           |
 |                                                 |
 | Copyright (c) 2000 - 2022                       |
 |                                                 |
 |     Distributed under license from Cambridge    |
 |     Enterprise for academic use only.           |
 |                                                 |
 | Please cite                                     |
 |                                                 |
 |     "First principles methods using CASTEP"     |
 |                                                 |
 |         Zeitschrift fuer Kristallographie       |
 |           220(5-6) pp. 567-570 (2005)           |
 |                                                 |
 | S. J. Clark, M. D. Segall, C. J. Pickard,       |
 | P. J. Hasnip, M. J. Probert, K. Refson,         |
 | M. C. Payne                                     |
 |                                                 |
 |       in all publications arising from          |
 |              your use of CASTEP                 |
 |                                                 |
 +-------------------------------------------------+
 |                                                 |
 |              http://www.castep.org              |
 |                                                 |
 +-------------------------------------------------+
 
 
 
 Compiled for linux_x86_64_ifort on Fri, 17 Feb 2023 16:03:05 +0000
 from code version 3cd9b0f+  gw_castep_22  Fri Feb 17 15:02:34 2023 +0000
 Compiler: Intel Fortran 2021.2.0; Optimisation: fast
 Comms   : Intel(R) MPI Library 2021.2 for Linux* OS
 MATHLIBS: Intel MKL(2021.2-Product) (LAPACK version 3.9.0)
 FFT Lib : mkl
 Fundamental constants values: CODATA 2018
 
 Run started: Fri, 17 Feb 2023 16:04:30 +0000
 +-------------------------------------------------+
 |                                                 |
 |  D D D D    F F F F F  P P P P     T T T T T    |
 |  D       D  F          P       P       T        |
 |  D       D  F F F F    P P P P         T        |
 |  D       D  F          P               T        |
 |  D D D D    F          P               T        |
 |                                                 |
 +-------------------------------------------------+
 |                                                 |
 | Welcome to Castep Linear Response (DFPT)        |
 |                                                 |
 | Copyright (c) 2006 - 2022                       |
 |                                                 |
 | Please cite the following publications in all   |
 | work arising from your use of CASTEP LR.        |
 |                                                 |
 | K. Refson, S. J. Clark and P. R. Tulip          |
 | Variational density functional perturbation     |
 | theory for dielectrics and lattice dynamics     |
 | Phys. Rev. B 73(15), 155114 (2006)              |
 +-------------------------------------------------+
 
 
 Atomic calculation performed for Si: 1s2 2s2 2p6 3s2 3p2
 
 Converged in 55 iterations to an ae energy of -7859.183 eV
 
   ============================================================                
   | Pseudopotential Report - Date of generation 17-02-2023   |                
   ------------------------------------------------------------                
   | Element: Si Ionic charge:  4.00 Level of theory: LDA     |                
   | Atomic Solver: Koelling-Harmon                           |                
   |                                                          |                
   |               Reference Electronic Structure             |                
   |         Orbital         Occupation         Energy        |                
   |            3s              2.000           -0.400        |                
   |            3p              2.000           -0.153        |                
   |                                                          |                
   |                 Pseudopotential Definition               |                
   |        Beta     l      e      Rc     scheme   norm       |                
   |          1      0   -0.400   1.599     qc      1         |                
   |          2      2    0.000   1.599     qc      1         |                
   |         loc     1   -0.153   1.599     qc      1         |                
   |                                                          |                
   | No charge augmentation                                   |                
   | Partial core correction Rc = 1.117                       |                
   ------------------------------------------------------------                
   | "1|1.6|6|7|8|30N:31L:32N"                                |                
   ------------------------------------------------------------                
   |      Author: Chris J. Pickard, Cambridge University      |                
   ============================================================                
 
 Pseudo atomic calculation performed for Si 3s2 3p2
 
 Converged in 25 iterations to a total energy of -212.0962 eV
 Calculation parallelised over 108 processes.
 Data is distributed by k-point(108-way)

 ************************************ Title ************************************
 

 ***************************** General Parameters ******************************
  
 output verbosity                               : normal  (1)
 write checkpoint data to                       : Si.check
 type of calculation                            : E-field calculation
 stress calculation                             : off
 density difference calculation                 : off
 electron localisation func (ELF) calculation   : off
 Hirshfeld analysis                             : off
 polarisation (Berry phase) analysis            : off
 molecular orbital projected DOS                : off
 deltaSCF calculation                           : off
 unlimited duration calculation
 timing information                             : on
 memory usage estimate                          : on
 write extra output files                       : on
 write final potential to formatted file        : off
 write final density to formatted file          : off
 write BibTeX reference list                    : on
 write OTFG pseudopotential files               : on
 write electrostatic potential file             : on
 write bands file                               : on
 checkpoint writing                             : off
  
 output         length unit                     : A
 output           mass unit                     : amu
 output           time unit                     : ps
 output         charge unit                     : e
 output           spin unit                     : hbar/2
 output         energy unit                     : eV
 output          force unit                     : eV/A
 output       velocity unit                     : A/ps
 output       pressure unit                     : GPa
 output     inv_length unit                     : 1/A
 output      frequency unit                     : cm-1
 output force constant unit                     : eV/A**2
 output         volume unit                     : A**3
 output   IR intensity unit                     : (D/A)**2/amu
 output         dipole unit                     : D
 output         efield unit                     : eV/A/e
 output        entropy unit                     : J/mol/K
 output    efield chi2 unit                     : pm/V
  
 wavefunctions paging                           : none
 random number generator seed                   :  160436965
 data distribution                              : optimal for this architecture
 optimization strategy                          : balance speed and memory

 *********************** Exchange-Correlation Parameters ***********************
  
 using functional                               : Local Density Approximation
 relativistic treatment                         : Koelling-Harmon
 DFT+D: Semi-empirical dispersion correction    : off

 ************************* Pseudopotential Parameters **************************
  
 pseudopotential representation                 : reciprocal space
 <beta|phi> representation                      : reciprocal space
 spin-orbit coupling                            : off

 **************************** Basis Set Parameters *****************************
  
 plane wave basis set cut-off                   :   350.0000   eV
 size of standard grid                          :     1.7500
 size of   fine   gmax                          :    16.7730   1/A
 largest prime factor in FFT                    :          5
 finite basis set correction                    : none

 **************************** Electronic Parameters ****************************
  
 number of  electrons                           :  8.000    
 net charge of system                           :  0.000    
 treating system as non-spin-polarized
 number of bands                                :          4

 ********************* Electronic Minimization Parameters **********************
  
 Method: Treating system as non-metallic,
         and number of  SD  steps               :          1
         and number of  CG  steps               :          4
  
 total energy / atom convergence tol.           : 0.2219E-09   eV
 max force / atom convergence tol.              : ignored
 convergence tolerance window                   :          3   cycles
 max. number of SCF cycles                      :         30
 periodic dipole correction                     : NONE

 *********************** Population Analysis Parameters ************************
  
 Population analysis with cutoff                :  3.000       A
 Population analysis output                     : summary and pdos components

 ***************************** E-Field Parameters ******************************
  
 E-field convergence tolerance                  : 0.1000E-04   A**3
 DFPT solver method                             : AllBands (Gonze variational method)
 ionic contribution to permittivity             : included
 treating system as a crystal, 
 => ignoring 3 lowest modes when calculating ionic  contribution to permittivity
 calculation with frequency spacing             : 0.4556E-05   cm-1
 Q-factor for lineshape broadening              :    50.0000
 calculate non-linear optical properties        : OFF
 max. number of E-field cycles                  :         50
 max. number of E-field CG steps                :          0
 convergence tolerance window                   :          2   cycles
 band convergence tolerance                     : 0.1000E-08   eV

 ******************************* Developer Code ********************************
  
 gw_convergence_win = 2
 gw_tol = 1.0e-9
 gw_max_cycles = 1
 start_omega = 0.1
 end_omega = 15.1
 num_freq = 301

 *******************************************************************************
  
 
                           -------------------------------
                                      Unit Cell
                           -------------------------------
        Real Lattice(A)                      Reciprocal Lattice(1/A)
     2.7000000     2.7000000     0.0000000        1.163552835   1.163552835  -1.163552835
     2.7000000     0.0000000     2.7000000        1.163552835  -1.163552835   1.163552835
     0.0000000     2.7000000     2.7000000       -1.163552835   1.163552835   1.163552835
 
                       Lattice parameters(A)       Cell Angles
                    a =      3.818377          alpha =   60.000000
                    b =      3.818377          beta  =   60.000000
                    c =      3.818377          gamma =   60.000000
 
                       Current cell volume =            39.366000       A**3
                                   density =             1.426891   AMU/A**3
                                           =             2.369409     g/cm^3
 
                           -------------------------------
                                     Cell Contents
                           -------------------------------
                         Total number of ions in cell =    2
                      Total number of species in cell =    1
                        Max number of any one species =    2
 
            xxxxxxxxxxxxxxxxxxxxxxxxxxxxxxxxxxxxxxxxxxxxxxxxxxxxxxxxxxxx
            x  Element    Atom        Fractional coordinates of atoms  x
            x            Number           u          v          w      x
            x----------------------------------------------------------x
            x  Si           1         0.000000   0.000000   0.000000   x 
            x  Si           2         0.250000   0.250000   0.250000   x 
            xxxxxxxxxxxxxxxxxxxxxxxxxxxxxxxxxxxxxxxxxxxxxxxxxxxxxxxxxxxx
 
 
                         No user defined ionic velocities
 
                           -------------------------------
                                   Details of Species
                           -------------------------------
 
                               Mass of species in AMU
                                    Si   28.0855000
 
                          Electric Quadrupole Moment (Barn)
                                    Si    1.0000000 No Isotope Defined
 
                          Files used for pseudopotentials:
                                    Si 1|1.6|6|7|8|30N:31L:32N
 
                           -------------------------------
                              k-Points For BZ Sampling
                           -------------------------------
                       MP grid size for SCF calculation is 12 12 12
                            with an offset of   0.000  0.000  0.000
                       Number of kpoints used =           864
 
                           -------------------------------
                               Symmetry and Constraints
                           -------------------------------
 
                      Maximum deviation from symmetry =  0.00000         ANG
 
                      Number of symmetry operations   =           1
                      Number of ionic constraints     =           3
                      Point group of crystal =     1: C1, 1, 1
                      Space group of crystal =   227: Fd-3m, F 4d 2 3 -1d
 
             Set iprint > 1 for details on symmetry rotations/translations
 
                         Centre of mass is constrained
             Set iprint > 1 for details of linear ionic constraints
 
                         Number of cell constraints= 0
                         Cell constraints are:  1 2 3 4 5 6
 
                         External pressure/stress (GPa)
                          0.00000   0.00000   0.00000
                                    0.00000   0.00000
                                              0.00000
 
+---------------- MEMORY AND SCRATCH DISK ESTIMATES PER PROCESS --------------+
|                                                     Memory          Disk    |
| Baseline code, static data and system overhead     4064.0 MB         0.0 MB |
| BLAS internal memory storage                          0.0 MB         0.0 MB |
| Model and support data                               13.3 MB         0.0 MB |
| Electronic energy minimisation requirements           2.3 MB         0.0 MB |
| Force calculation requirements                        2.0 MB         0.0 MB |
|                                               ----------------------------- |
| Approx. total storage required per process         4079.6 MB         0.0 MB |
|                                                                             |
| Requirements will fluctuate during execution and may exceed these estimates |
+-----------------------------------------------------------------------------+
Calculating approximate eigenstates for fixed initial Hamiltonian
Cut-off for approx. calculation is   89.988 eV
Improving approx. states at cut-off of  175.000 eV
Resetting cut-off to  350.000 eV
Improving states further at cut-off of  350.000 eV
Calculating total energy with cut-off of  350.000 eV.
------------------------------------------------------------------------ <-- SCF
SCF loop      Energy                           Energy gain       Timer   <-- SCF
                                               per atom          (sec)   <-- SCF
------------------------------------------------------------------------ <-- SCF
Initial  -4.36063311E+002                                         11.49  <-- SCF
      1  -4.36121626E+002                    2.91579833E-002      11.67  <-- SCF
      2  -4.36121745E+002                    5.92110966E-005      11.85  <-- SCF
      3  -4.36121746E+002                    4.48874511E-007      12.03  <-- SCF
      4  -4.36121746E+002                    6.13939581E-009      12.21  <-- SCF
      5  -4.36121746E+002                    1.09435267E-010      12.39  <-- SCF
      6  -4.36121746E+002                    2.17517094E-012      12.63  <-- SCF
------------------------------------------------------------------------ <-- SCF
 
Final energy =  -436.1217458104     eV
(energy not corrected for finite basis set)
 
  scf kpoint data stored
 
--------------------------------------------------------------------------------
 Comms strategy in GW module 
 Data is distributed by G-vector(1-way) and k-point(108-way) and band(1-way)
--------------------------------------------------------------------------------
 
Energy Unit:  eV
 
 
 ==============================================================================
 +                                                                            +
 +                         GW NSCF Dielectric Response                        +
 +                         ---------------------------                        +
 +                                                                            +
 + Response calculation at long wavelength                                    +
 +                                                                            +
 + ========================================================================== +
 +                                                                            +
 +  q-pt = (  0.010000  0.000000  0.000000)                                   +
 +                                                                            +
 + Head of the Frequency Dependent Dielectric Matrix (G=G'=0)                 +
 +                                                                            +
 + Frequency      Re:eps_{GG'}(q,w)      Im:eps_{GG'}(q,w)                    +
 +                                                                            +
 +    0.1000           13.9314            0.0376                              +
 +    0.1500           13.9602            0.0133                              +
 +    0.2000           13.9974            0.0197                              +
 +    0.2500           14.0295            0.0273                              +
 +    0.3000           14.0617            0.0349                              +
 +    0.3500           14.0969            0.0416                              +
 +    0.4000           14.1382            0.0515                              +
 +    0.4500           14.1796            0.0596                              +
 +    0.5000           14.2282            0.0706                              +
 +    0.5500           14.2818            0.0802                              +
 +    0.6000           14.3403            0.0905                              +
 +    0.6500           14.4029            0.1013                              +
 +    0.7000           14.4753            0.1098                              +
 +    0.7500           14.5494            0.1197                              +
 +    0.8000           14.6285            0.1315                              +
 +    0.8500           14.7157            0.1425                              +
 +    0.9000           14.8092            0.1529                              +
 +    0.9500           14.9106            0.1664                              +
 +    1.0000           15.0199            0.1790                              +
 +    1.0500           15.1370            0.1916                              +
 +    1.1000           15.2617            0.2068                              +
 +    1.1500           15.3943            0.2209                              +
 +    1.2000           15.5369            0.2369                              +
 +    1.2500           15.6887            0.2537                              +
 +    1.3000           15.8501            0.2719                              +
 +    1.3500           16.0229            0.2914                              +
 +    1.4000           16.2071            0.3114                              +
 +    1.4500           16.4050            0.3336                              +
 +    1.5000           16.6159            0.3568                              +
 +    1.5500           16.8425            0.3819                              +
 +    1.6000           17.0841            0.4101                              +
 +    1.6500           17.3437            0.4407                              +
 +    1.7000           17.6221            0.4748                              +
 +    1.7500           17.9225            0.5113                              +
 +    1.8000           18.2465            0.5526                              +
 +    1.8500           18.5964            0.5982                              +
 +    1.9000           18.9751            0.6500                              +
 +    1.9500           19.3872            0.7090                              +
 +    2.0000           19.8371            0.7763                              +
 +    2.0500           20.3297            0.8547                              +
 +    2.1000           20.8728            0.9464                              +
 +    2.1500           21.4740            1.0546                              +
 +    2.2000           22.1452            1.1860                              +
 +    2.2500           22.8998            1.3476                              +
 +    2.3000           23.7563            1.5516                              +
 +    2.3500           24.7414            1.8179                              +
 +    2.4000           25.8893            2.1799                              +
 +    2.4500           27.2483            2.6994                              +
 +    2.5000           28.8730            3.5019                              +
 +    2.5500           30.7698            4.8432                              +
 +    2.6000           32.6572            7.1135                              +
 +    2.6500           33.8765           10.3455                              +
 +    2.7000           33.7677           14.3680                              +
 +    2.7500           31.4199           17.5686                              +
 +    2.8000           28.9533           18.5200                              +
 +    2.8500           27.5447           18.6198                              +
 +    2.9000           27.2332           18.5075                              +
 +    2.9500           27.8115           19.4447                              +
 +    3.0000           27.6303           21.4547                              +
 +    3.0500           26.2922           23.3050                              +
 +    3.1000           24.4063           24.1326                              +
 +    3.1500           23.0274           23.8717                              +
 +    3.2000           22.5338           23.1847                              +
 +    3.2500           23.5349           22.6695                              +
 +    3.3000           25.1592           23.6402                              +
 +    3.3500           26.4144           25.6403                              +
 +    3.4000           27.5951           28.0986                              +
 +    3.4500           28.8262           32.4678                              +
 +    3.5000           27.3150           38.6459                              +
 +    3.5500           22.6774           43.0539                              +
 +    3.6000           18.5559           45.3934                              +
 +    3.6500           14.3031           48.7043                              +
 +    3.7000            6.9468           51.4450                              +
 +    3.7500           -2.0133           49.7326                              +
 +    3.8000           -7.7183           44.3696                              +
 +    3.8500          -10.4252           39.5231                              +
 +    3.9000          -12.3327           35.1759                              +
 +    3.9500          -12.9634           30.8983                              +
 +    4.0000          -12.9822           27.2620                              +
 +    4.0500          -12.2236           23.6466                              +
 +    4.1000          -10.0614           20.7827                              +
 +    4.1500           -7.6186           19.7422                              +
 +    4.2000           -5.8212           19.5920                              +
 +    4.2500           -4.3381           19.9433                              +
 +    4.3000           -3.1737           21.0605                              +
 +    4.3500           -3.1746           22.9433                              +
 +    4.4000           -4.3885           24.3603                              +
 +    4.4500           -6.2209           25.1741                              +
 +    4.5000           -8.4889           25.2121                              +
 +    4.5500          -10.6599           24.2635                              +
 +    4.6000          -12.3386           22.7632                              +
 +    4.6500          -13.4106           21.0942                              +
 +    4.7000          -14.4420           19.5971                              +
 +    4.7500          -15.5393           17.4014                              +
 +    4.8000          -15.5780           14.6332                              +
 +    4.8500          -14.4834           12.3488                              +
 +    4.9000          -13.0686           11.1240                              +
 +    4.9500          -12.0680           10.3287                              +
 +    5.0000          -10.9902            9.6146                              +
 +    5.0500           -9.8333            9.3030                              +
 +    5.1000           -8.9122            9.4531                              +
 +    5.1500           -8.3574            9.7322                              +
 +    5.2000           -8.0396           10.1471                              +
 +    5.2500           -8.2352           10.6123                              +
 +    5.3000           -8.7970           10.5522                              +
 +    5.3500           -9.1423           10.1495                              +
 +    5.4000           -9.3103            9.5660                              +
 +    5.4500           -9.1678            9.1011                              +
 +    5.5000           -9.1285            8.8820                              +
 +    5.5500           -9.2916            8.5663                              +
 +    5.6000           -9.4239            8.0889                              +
 +    5.6500           -9.5274            7.5117                              +
 +    5.7000           -9.4611            6.7498                              +
 +    5.7500           -9.1507            6.0739                              +
 +    5.8000           -8.7316            5.4354                              +
 +    5.8500           -8.0738            4.9558                              +
 +    5.9000           -7.4191            4.8006                              +
 +    5.9500           -6.9114            4.7819                              +
 +    6.0000           -6.4863            4.8120                              +
 +    6.0500           -6.1027            4.9353                              +
 +    6.1000           -5.8551            5.1330                              +
 +    6.1500           -5.6785            5.3567                              +
 +    6.2000           -5.6939            5.7471                              +
 +    6.2500           -6.1824            5.9006                              +
 +    6.3000           -6.5054            5.5214                              +
 +    6.3500           -6.5267            5.1771                              +
 +    6.4000           -6.4887            4.8518                              +
 +    6.4500           -6.3305            4.5841                              +
 +    6.5000           -6.1838            4.4339                              +
 +    6.5500           -6.1198            4.2897                              +
 +    6.6000           -6.0408            4.0591                              +
 +    6.6500           -5.8690            3.8669                              +
 +    6.7000           -5.7179            3.7074                              +
 +    6.7500           -5.5330            3.5566                              +
 +    6.8000           -5.3351            3.4363                              +
 +    6.8500           -5.0955            3.3521                              +
 +    6.9000           -4.8348            3.3732                              +
 +    6.9500           -4.6469            3.5257                              +
 +    7.0000           -4.6619            3.7529                              +
 +    7.0500           -4.8997            3.7930                              +
 +    7.1000           -5.0396            3.5646                              +
 +    7.1500           -4.9642            3.3433                              +
 +    7.2000           -4.8496            3.2527                              +
 +    7.2500           -4.8092            3.2136                              +
 +    7.3000           -4.8178            3.1189                              +
 +    7.3500           -4.7862            2.9909                              +
 +    7.4000           -4.7441            2.8665                              +
 +    7.4500           -4.6779            2.7358                              +
 +    7.5000           -4.5946            2.6265                              +
 +    7.5500           -4.5115            2.5302                              +
 +    7.6000           -4.4348            2.4569                              +
 +    7.6500           -4.3980            2.3664                              +
 +    7.7000           -4.3306            2.2337                              +
 +    7.7500           -4.2293            2.1175                              +
 +    7.8000           -4.1213            1.9946                              +
 +    7.8500           -3.9431            1.8997                              +
 +    7.9000           -3.7886            1.8918                              +
 +    7.9500           -3.6790            1.8854                              +
 +    8.0000           -3.5808            1.8895                              +
 +    8.0500           -3.5099            1.8869                              +
 +    8.1000           -3.4381            1.8815                              +
 +    8.1500           -3.3669            1.8788                              +
 +    8.2000           -3.3069            1.9004                              +
 +    8.2500           -3.2955            1.9219                              +
 +    8.3000           -3.2940            1.8943                              +
 +    8.3500           -3.2664            1.8607                              +
 +    8.4000           -3.2345            1.8356                              +
 +    8.4500           -3.2177            1.8326                              +
 +    8.5000           -3.2425            1.8070                              +
 +    8.5500           -3.2683            1.7379                              +
 +    8.6000           -3.2755            1.6342                              +
 +    8.6500           -3.2410            1.4998                              +
 +    8.7000           -3.1399            1.3855                              +
 +    8.7500           -3.0251            1.3193                              +
 +    8.8000           -2.9043            1.2883                              +
 +    8.8500           -2.8105            1.3015                              +
 +    8.9000           -2.7558            1.3137                              +
 +    8.9500           -2.7130            1.3171                              +
 +    9.0000           -2.6905            1.3225                              +
 +    9.0500           -2.6926            1.2894                              +
 +    9.1000           -2.6476            1.2202                              +
 +    9.1500           -2.5642            1.1985                              +
 +    9.2000           -2.5222            1.2146                              +
 +    9.2500           -2.5118            1.2056                              +
 +    9.3000           -2.5024            1.1728                              +
 +    9.3500           -2.4742            1.1127                              +
 +    9.4000           -2.4018            1.0671                              +
 +    9.4500           -2.3311            1.0653                              +
 +    9.5000           -2.2888            1.0849                              +
 +    9.5500           -2.2841            1.0989                              +
 +    9.6000           -2.2919            1.0812                              +
 +    9.6500           -2.2934            1.0493                              +
 +    9.7000           -2.3017            0.9973                              +
 +    9.7500           -2.2800            0.9151                              +
 +    9.8000           -2.2246            0.8420                              +
 +    9.8500           -2.1487            0.7824                              +
 +    9.9000           -2.0501            0.7524                              +
 +    9.9500           -1.9658            0.7694                              +
 +   10.0000           -1.9220            0.7964                              +
 +   10.0500           -1.8986            0.8118                              +
 +   10.1000           -1.8949            0.8159                              +
 +   10.1500           -1.8953            0.7822                              +
 +   10.2000           -1.8590            0.7351                              +
 +   10.2500           -1.8065            0.7083                              +
 +   10.3000           -1.7550            0.6930                              +
 +   10.3500           -1.7027            0.6881                              +
 +   10.4000           -1.6589            0.6968                              +
 +   10.4500           -1.6282            0.7059                              +
 +   10.5000           -1.6079            0.7171                              +
 +   10.5500           -1.6035            0.7155                              +
 +   10.6000           -1.5936            0.6933                              +
 +   10.6500           -1.5650            0.6655                              +
 +   10.7000           -1.5230            0.6546                              +
 +   10.7500           -1.4949            0.6565                              +
 +   10.8000           -1.4729            0.6512                              +
 +   10.8500           -1.4528            0.6491                              +
 +   10.9000           -1.4389            0.6353                              +
 +   10.9500           -1.4106            0.6199                              +
 +   11.0000           -1.3867            0.6136                              +
 +   11.0500           -1.3582            0.5995                              +
 +   11.1000           -1.3230            0.6032                              +
 +   11.1500           -1.3112            0.6150                              +
 +   11.2000           -1.3071            0.6017                              +
 +   11.2500           -1.2784            0.5869                              +
 +   11.3000           -1.2513            0.5966                              +
 +   11.3500           -1.2522            0.6133                              +
 +   11.4000           -1.2752            0.5997                              +
 +   11.4500           -1.2729            0.5563                              +
 +   11.5000           -1.2496            0.5236                              +
 +   11.5500           -1.2229            0.4940                              +
 +   11.6000           -1.1839            0.4715                              +
 +   11.6500           -1.1446            0.4630                              +
 +   11.7000           -1.1121            0.4644                              +
 +   11.7500           -1.0879            0.4678                              +
 +   11.8000           -1.0734            0.4719                              +
 +   11.8500           -1.0638            0.4637                              +
 +   11.9000           -1.0454            0.4511                              +
 +   11.9500           -1.0238            0.4443                              +
 +   12.0000           -1.0059            0.4392                              +
 +   12.0500           -0.9877            0.4333                              +
 +   12.1000           -0.9733            0.4302                              +
 +   12.1500           -0.9621            0.4183                              +
 +   12.2000           -0.9421            0.4053                              +
 +   12.2500           -0.9203            0.3944                              +
 +   12.3000           -0.8902            0.3888                              +
 +   12.3500           -0.8676            0.4017                              +
 +   12.4000           -0.8696            0.4097                              +
 +   12.4500           -0.8749            0.3928                              +
 +   12.5000           -0.8589            0.3650                              +
 +   12.5500           -0.8310            0.3495                              +
 +   12.6000           -0.8044            0.3424                              +
 +   12.6500           -0.7823            0.3398                              +
 +   12.7000           -0.7628            0.3345                              +
 +   12.7500           -0.7398            0.3307                              +
 +   12.8000           -0.7187            0.3306                              +
 +   12.8500           -0.7002            0.3321                              +
 +   12.9000           -0.6840            0.3322                              +
 +   12.9500           -0.6684            0.3317                              +
 +   13.0000           -0.6498            0.3297                              +
 +   13.0500           -0.6294            0.3348                              +
 +   13.1000           -0.6163            0.3446                              +
 +   13.1500           -0.6100            0.3513                              +
 +   13.2000           -0.6062            0.3529                              +
 +   13.2500           -0.6005            0.3520                              +
 +   13.3000           -0.5975            0.3497                              +
 +   13.3500           -0.5909            0.3425                              +
 +   13.4000           -0.5824            0.3380                              +
 +   13.4500           -0.5743            0.3321                              +
 +   13.5000           -0.5644            0.3286                              +
 +   13.5500           -0.5594            0.3257                              +
 +   13.6000           -0.5555            0.3165                              +
 +   13.6500           -0.5464            0.3039                              +
 +   13.7000           -0.5311            0.2930                              +
 +   13.7500           -0.5147            0.2903                              +
 +   13.8000           -0.5048            0.2892                              +
 +   13.8500           -0.4984            0.2852                              +
 +   13.9000           -0.4912            0.2753                              +
 +   13.9500           -0.4787            0.2651                              +
 +   14.0000           -0.4640            0.2560                              +
 +   14.0500           -0.4457            0.2493                              +
 +   14.1000           -0.4280            0.2496                              +
 +   14.1500           -0.4163            0.2494                              +
 +   14.2000           -0.4031            0.2478                              +
 +   14.2500           -0.3906            0.2477                              +
 +   14.3000           -0.3782            0.2488                              +
 +   14.3500           -0.3689            0.2513                              +
 +   14.4000           -0.3611            0.2526                              +
 +   14.4500           -0.3541            0.2536                              +
 +   14.5000           -0.3498            0.2540                              +
 +   14.5500           -0.3467            0.2516                              +
 +   14.6000           -0.3438            0.2474                              +
 +   14.6500           -0.3401            0.2377                              +
 +   14.7000           -0.3293            0.2272                              +
 +   14.7500           -0.3142            0.2220                              +
 +   14.8000           -0.3039            0.2230                              +
 +   14.8500           -0.2967            0.2192                              +
 +   14.9000           -0.2869            0.2163                              +
 +   14.9500           -0.2783            0.2138                              +
 +   15.0000           -0.2694            0.2113                              +
 +   15.0500           -0.2611            0.2107                              +
 +   15.1000           -0.2568            0.2091                              +
 
 ************************** Forces **************************
 *                                                          *
 *               Cartesian components (eV/A)                *
 * -------------------------------------------------------- *
 *                         x            y            z      *
 *                                                          *
 * Si              1     -0.00020     -0.00020     -0.00020 *
 * Si              2      0.00020      0.00020      0.00020 *
 *                                                          *
 ************************************************************
 
 Pseudo atomic calculation performed for Si 3s2 3p2
 
 Converged in 25 iterations to a total energy of -212.0962 eV
Charge spilling parameter for spin component 1 = 0.88%
 
            Orbital Populations       
     Ion    Atom   Orbital             Charge
  -------------------------------------------
     Si     1      S                    1.358
     Si     1      Px                   0.881
     Si     1      Py                   0.881
     Si     1      Pz                   0.881
     Si     2      S                    1.358
     Si     2      Px                   0.881
     Si     2      Py                   0.881
     Si     2      Pz                   0.881
  -------------------------------------------
                           Total:       8.000
  -------------------------------------------
 
     Atomic Populations (Mulliken)
     -----------------------------
Species          Ion     s       p       d       f      Total   Charge (e)
==========================================================================
  Si              1     1.358   2.642   0.000   0.000   4.000    -0.000
  Si              2     1.358   2.642   0.000   0.000   4.000     0.000
==========================================================================
 
                 Bond                   Population      Length (A)
======================================================================
              Si 1 -- Si 2                   2.98        2.33827
======================================================================
 
 
 A BibTeX formatted list of references used in this run has been written to 
 Si.bib
 
Initialisation time =     10.89 s
Calculation time    =    964.92 s
Finalisation time   =      0.02 s
Total time          =    975.82 s
Peak Memory Use     = 4449400 kB
 
Overall parallel efficiency rating: Excellent (90%)
 
Data was distributed by:-
k-point (108-way); efficiency rating: Excellent (93%)
